 Gaussian 16, Revision B.01,
 Gaussian 16:  ES64L-G16RevB.01 20-Dec-2017

 --------------------------------
 # freq=hpmodes rb3lyp/6-31g(d,p)
 --------------------------------

 -----------------
 Freq for Dynsuite
 -----------------
 Symbolic Z-matrix:
 Charge =  0 Multiplicity = 1

                         Standard orientation:
 ---------------------------------------------------------------------
 Center     Atomic      Atomic             Coordinates (Angstroms)
 Number     Number       Type             X           Y           Z
 ---------------------------------------------------------------------
      1          6           0       -1.726318   -0.691844    0.780730
      2          6           0       -1.568072   -0.888257   -0.508929
      3          1           0       -1.322922   -1.568436   -1.306436
      4          1           0       -1.506793   -0.989071    1.794166
      5          6           0       -2.481751    0.244066   -0.108582
      6          6           0        0.548185    0.037961   -0.702170
      7          1           0       -3.564569    0.123769   -0.203433
      8          1           0       -2.144048    1.274575   -0.242263
      9         17           0        1.668764   -1.097760    0.092426
     10         17           0        0.678652    1.624091    0.095320
 ---------------------------------------------------------------------

 SCF Done:  E(RB3LYP) =  -1075.01005407     A.U. after   17 cycles

 The electronic state is 1-A.
 Alpha  occ. eigenvalues -- -101.56660-101.56544 -10.32775 -10.23097 -10.22732
 Alpha  occ. eigenvalues --  -10.21335  -9.48381  -9.48271  -7.24658  -7.24548
 Alpha  occ. eigenvalues --   -7.23955  -7.23836  -7.23717  -7.23616  -0.90579
 Alpha  occ. eigenvalues --   -0.88766  -0.83375  -0.61860  -0.59581  -0.57823
 Alpha  occ. eigenvalues --   -0.51987  -0.46017  -0.44406  -0.38983  -0.38665
 Alpha  occ. eigenvalues --   -0.36043  -0.33377  -0.31653  -0.31386  -0.29232
 Alpha  occ. eigenvalues --   -0.23263
 Alpha virt. eigenvalues --   -0.10771  -0.01431   0.02086   0.04754   0.11085
 Alpha virt. eigenvalues --    0.11941   0.13513   0.16275   0.18125   0.21853
 Alpha virt. eigenvalues --    0.31303   0.32064   0.38536   0.40387   0.41003

 Mulliken charges:
               1
     1  C   -0.058316
     2  C   -0.051908
     3  H    0.132867
     4  H    0.120880
     5  C   -0.226303
     6  C   -0.180073
     7  H    0.109826
     8  H    0.121123
     9  Cl   0.012112
    10  Cl   0.019792
 Sum of Mulliken charges =  -0.00000

 Dipole moment (field-independent basis, Debye):
    X=             -1.4931    Y=             -0.8222    Z=              0.7405  Tot=              1.8584
 Quadrupole moment (field-independent basis, Debye-Ang):
   XX=            -47.5471   YY=            -48.2782   ZZ=            -48.3027
   XY=              1.2850   XZ=             -0.2615   YZ=              0.1307

  Exact polarizability:  94.891  -2.678  71.321  -3.377  -1.009  49.090
 Approx polarizability: 148.081  -4.757 121.297 -17.642  -2.635  94.944

 ******    1 imaginary frequencies (negative Signs) ******

                      1                      2                      3
                      A                      A                      A
 Frequencies --   -158.8894                41.1397               114.0364
 Red. masses --      9.2197                 3.2244                 4.9110
 Frc consts  --      0.1371                 0.0032                 0.0376
 IR Inten    --     33.2914                 1.0661                 0.1663

                      4                      5                      6
                      A                      A                      A
 Frequencies --    134.9305               222.0713               277.1339
 Red. masses --      3.9358                 3.4193                 7.9036
 Frc consts  --      0.0422                 0.0994                 0.3576
 IR Inten    --      0.4722                 5.6541                 5.1810

                      7                      8                      9
                      A                      A                      A
 Frequencies --    319.9398               632.3086               666.8926
 Red. masses --     20.8394                 2.4462                12.8416
 Frc consts  --      1.2568                 0.5762                 3.3650
 IR Inten    --      3.9092               229.5741               312.4422

                     10                     11                     12
                      A                      A                      A
 Frequencies --    673.2690               800.9685               864.9991
 Red. masses --      1.7715                 2.3074                 1.2359
 Frc consts  --      0.4731                 0.8722                 0.5448
 IR Inten    --      6.8484                17.4587                 2.3660

                     13                     14                     15
                      A                      A                      A
 Frequencies --    931.9852              1001.7928              1044.5785
 Red. masses --      1.1649                 1.2143                 1.5132
 Frc consts  --      0.5961                 0.7180                 0.9728
 IR Inten    --      6.1318                 6.2701                16.8434

                     16                     17                     18
                      A                      A                      A
 Frequencies --   1081.8490              1092.8937              1181.4516
 Red. masses --      1.3743                 1.3163                 4.0045
 Frc consts  --      0.9477                 0.9263                 3.2933
 IR Inten    --     32.4239                 1.3701                 5.0779

                     19                     20                     21
                      A                      A                      A
 Frequencies --   1513.4249              1665.0293              3057.1371
 Red. masses --      1.1429                 4.3257                 1.0490
 Frc consts  --      1.5423                 7.0655                 5.7765
 IR Inten    --      0.2126                55.4130                43.4234

                     22                     23                     24
                      A                      A                      A
 Frequencies --   3124.5786              3278.7722              3323.1895
 Red. masses --      1.1152                 1.0888                 1.1322
 Frc consts  --      6.4147                 6.8962                 7.3666
 IR Inten    --     20.1607                 2.8097                 2.8178

 - Thermochemistry -
 -------------------
 Temperature   298.150 Kelvin.  Pressure   1.00000 Atm.
 Atom     1 has atomic number  6 and mass  12.00000

 Molecular mass:   121.96901 amu.
 Principal axes and moments of inertia in atomic units:
                           1         2         3
     Eigenvalues --   634.096171067.704591543.51716
           X            0.99995   0.01023   0.00026
           Y           -0.01023   0.99995  -0.00081
           Z           -0.00027   0.00081   1.00000
 This molecule is an asymmetric top.
 Rotational symmetry number  1.
 Warning -- assumption of classical behavior for rotation
           may cause significant error
 Rotational temperatures (Kelvin)      0.13659     0.08112     0.05611
 Rotational constants (GHZ):           2.84616     1.69030     1.16924
    1 imaginary frequencies ignored.
 Zero-point vibrational energy     161761.3 (Joules/Mol)
                                   38.66187 (Kcal/Mol)
 Warning -- explicit consideration of   6 degrees of freedom as
           vibrations may cause significant error
 Vibrational temperatures:     59.19   164.07   194.13   319.51   398.73
          (Kelvin)            460.32   909.75   959.51   968.68  1152.42
                             1244.54  1340.92  1441.36  1502.92  1556.54
                             1572.43  1699.85  2177.48  2395.61  4398.54
                             4495.57  4717.42  4781.33

 Zero-point correction=                           0.061612 (Hartree/Particle)
 Thermal correction to Energy=                    0.068774
 Thermal correction to Enthalpy=                  0.069719
 Thermal correction to Gibbs Free Energy=         0.028493
 Sum of electronic and zero-point Energies=          -1074.948442
 Sum of electronic and thermal Energies=             -1074.941280
 Sum of electronic and thermal Enthalpies=           -1074.940336
 Sum of electronic and thermal Free Energies=        -1074.981561

                     E (Thermal)             CV                S
                      KCal/Mol        Cal/Mol-Kelvin    Cal/Mol-Kelvin
 Total                   43.157             22.972             86.766
 Electronic               0.000              0.000              0.000
 Translational            0.889              2.981             40.310
 Rotational               0.889              2.981             28.437
 Vibrational             41.379             17.010             18.019
 Vibration     1          0.594              1.981              5.203
 Vibration     2          0.607              1.938              3.199
 Vibration     3          0.613              1.918              2.875
 Vibration     4          0.648              1.807              1.942
 Vibration     5          0.678              1.716              1.551
 Vibration     6          0.706              1.635              1.310

 Optimization completed.
    -- Stationary point found.
 Normal termination of Gaussian 16 at Tue Jun 16 12:55:49 2020.
