 Gaussian 09, Revision B.01,
 Gaussian 09:  EM64L-G09RevB.01 12-Aug-2010

 ----------------------------------------------------------------------
 #opt=(ts,calcfc,noeigen) freq=(noraman,hpmodes) guess=(mix,always) scf
 =(xqc,maxcycle=1000) um062x/6-31g(d,p) IOp(2/15=4,2/16=3)
 ----------------------------------------------------------------------

 ------------------
 diazene_2_sym_tsfr
 ------------------
 Symbolic Z-matrix:
 Charge =  0 Multiplicity = 1

 SCF Done:  E(UM062X) =  -304.591889826     A.U. after   25 cycles
 SCF Done:  E(UM062X) =  -304.591895125     A.U. after   17 cycles
 Optimization completed.
    -- Stationary point found.

 1\1\GINC-M9-43-4\FTS\UM062X\6-31G(d,p)\C5H8N2\NKROLLIN\08-Nov-2019\0\\
 #opt=(ts,calcfc,noeigen) freq=(noraman,hpmodes) guess=(mix,always) scf
 =(xqc,maxcycle=1000) um062x/6-31g(d,p) IOp(2/15=4,2/16=3)\\diazene_2_s
 ym_tsfr\\0,1\C,0.3599563378,-1.252956532,0.781464921\H,-0.0676237826,-
 2.1857285989,1.1708856471\H,1.3674233948,-1.1736903824,1.2030943614\C,
 0.3599563378,-1.252956532,-0.781464921\H,-0.0676237826,-2.1857285989,-
 1.1708856471\H,1.3674233948,-1.1736903824,-1.2030943614\C,-0.490737522
 ,-0.0624216476,1.1628933034\H,-0.7679023242,0.1418585586,2.1902630635\

 Normal termination of Gaussian 09 at Fri Nov  8 16:18:17 2019.

 ----------------------------------------------------------------------
 #N Geom=AllCheck Guess=TCheck SCRF=Check Test GenChk UM062X/6-31G(d,p)
  Freq
 ----------------------------------------------------------------------

 diazene_2_sym_tsfr
 ------------------
 Redundant internal coordinates taken from checkpoint file:
 diazene_2_sym_tsfr.chk
 Charge =  0 Multiplicity = 1

                         Standard orientation:
 ---------------------------------------------------------------------
 Center     Atomic      Atomic             Coordinates (Angstroms)
 Number     Number       Type             X           Y           Z
 ---------------------------------------------------------------------
      1          6           0       -0.444231   -1.216994    0.781465
      2          1           0       -1.334419   -1.727341    1.170886
      3          1           0        0.421561   -1.738221    1.203094
      4          6           0       -0.444231   -1.216994   -0.781465
      5          1           0       -1.334419   -1.727341   -1.170886
      6          1           0        0.421561   -1.738221   -1.203094
      7          6           0       -0.444231    0.246240    1.162893
      8          1           0       -0.550977    0.573587    2.190263
      9          6           0       -0.444231    0.246240   -1.162893
     10          1           0       -0.550977    0.573587   -2.190263
     11          7           0        1.580718    0.591742    0.567291
     12          7           0        1.580718    0.591742   -0.567291
     13          6           0       -0.960680    1.021953    0.000000
     14          1           0       -2.062956    0.930754    0.000000
     15          1           0       -0.713795    2.086138    0.000000
 ---------------------------------------------------------------------

 SCF Done:  E(UM062X) =  -304.591895125     A.U. after    1 cycles

 Unable to determine electronic state:  an orbital has unidentified symmetry.
 Alpha  occ. eigenvalues --  -14.82166 -14.81929 -10.56509 -10.55954 -10.55340
 Alpha  occ. eigenvalues --  -10.55001 -10.54943  -1.17249  -0.94678  -0.81443
 Alpha  occ. eigenvalues --   -0.79454  -0.64799  -0.63356  -0.60315  -0.57210
 Alpha  occ. eigenvalues --   -0.55882  -0.50759  -0.46411  -0.45410  -0.43976
 Alpha  occ. eigenvalues --   -0.43613  -0.42532  -0.41821  -0.40726  -0.40434
 Alpha  occ. eigenvalues --   -0.22117
 Alpha virt. eigenvalues --   -0.00122   0.06496   0.12604   0.13726   0.17591
 Alpha virt. eigenvalues --    0.19117   0.19520   0.20790   0.21459   0.21813
 Alpha virt. eigenvalues --    0.23441   0.24216   0.27183   0.30310   0.33214

  Beta  occ. eigenvalues --  -14.82166 -14.81929 -10.56509 -10.55954 -10.55340
  Beta  occ. eigenvalues --  -10.55001 -10.54943  -1.17249  -0.94678  -0.81443
  Beta  occ. eigenvalues --   -0.79454  -0.64799  -0.63356  -0.60315  -0.57210
  Beta  occ. eigenvalues --   -0.55882  -0.50759  -0.46411  -0.45410  -0.43976
  Beta  occ. eigenvalues --   -0.43613  -0.42532  -0.41821  -0.40726  -0.40434
  Beta  occ. eigenvalues --   -0.22117
  Beta virt. eigenvalues --   -0.00122   0.06496   0.12604   0.13726   0.17591
  Beta virt. eigenvalues --    0.19117   0.19520   0.20790   0.21459   0.21813
  Beta virt. eigenvalues --    0.23441   0.24216   0.27183   0.30310   0.33214

 Mulliken atomic charges:
              1
     1  C   -0.237774
     2  H    0.130256
     3  H    0.142750
     4  C   -0.237774
     5  H    0.130256
     6  H    0.142750
     7  C   -0.111169
     8  H    0.121812
     9  C   -0.111169
    10  H    0.121812
    11  N   -0.082831
    12  N   -0.082831
    13  C   -0.234313
    14  H    0.156263
    15  H    0.151962
 Sum of Mulliken atomic charges =   0.00000

 Dipole moment (field-independent basis, Debye):
    X=             -2.4082    Y=             -0.4701    Z=              0.0000  Tot=              2.4537
 Quadrupole moment (field-independent basis, Debye-Ang):
   XX=            -44.3712   YY=            -40.5731   ZZ=            -41.7730
   XY=             -1.7084   XZ=              0.0000   YZ=              0.0000

  Exact polarizability:  71.998   3.429  57.608   0.000   0.000  72.026
 Approx polarizability:  88.238   3.874  66.582   0.000   0.000  97.670

 ******    1 imaginary frequencies (negative Signs) ******

                     1                      2                      3
                    A'                     A"                     A"
 Frequencies --  -721.0594                86.4103               133.9514
 Red. masses --     7.6797                 5.7533                 2.2733
 Frc consts  --     2.3525                 0.0253                 0.0240
 IR Inten    --   247.0548                 8.8593                 0.6524

                     4                      5                      6
                    A'                     A"                     A'
 Frequencies --   234.6668               299.7928               360.1022
 Red. masses --     4.3405                 8.3843                 1.8300
 Frc consts  --     0.1408                 0.4440                 0.1398
 IR Inten    --     2.2350                 0.0962                 2.3955

                     7                      8                      9
                    A"                     A'                     A"
 Frequencies --   496.7566               625.5750               640.1615
 Red. masses --     4.0192                 1.8383                 1.4940
 Frc consts  --     0.5844                 0.4239                 0.3607
 IR Inten    --     6.4621                 5.3828                 0.0820

                    10                     11                     12
                    A'                     A"                     A'
 Frequencies --   666.6857               716.7034               766.3225
 Red. masses --     1.4995                 3.9270                 1.8091
 Frc consts  --     0.3927                 1.1885                 0.6259
 IR Inten    --    12.0312                 1.9838                 7.4661

                    13                     14                     15
                    A"                     A'                     A'
 Frequencies --   798.2281               806.1694               899.3366
 Red. masses --     2.2371                 2.6907                 2.7025
 Frc consts  --     0.8398                 1.0303                 1.2878
 IR Inten    --     4.3192                 9.3766                 2.8636

                    16                     17                     18
                    A"                     A'                     A'
 Frequencies --   907.5896               935.0545               975.8443
 Red. masses --     2.1016                 2.3574                 2.4143
 Frc consts  --     1.0199                 1.2144                 1.3546
 IR Inten    --     8.3840                 0.1827                 9.5768

                    19                     20                     21
                    A"                     A"                     A'
 Frequencies --  1003.0744              1056.5474              1062.6749
 Red. masses --     1.6152                 1.4183                 1.5988
 Frc consts  --     0.9575                 0.9328                 1.0638
 IR Inten    --     4.0620                16.4090                 2.4624

                    22                     23                     24
                    A"                     A'                     A"
 Frequencies --  1075.5008              1242.9181              1264.3133
 Red. masses --     1.3610                 2.1081                 1.5449
 Frc consts  --     0.9275                 1.9188                 1.4550
 IR Inten    --     7.2052                 3.1561                 1.6021

                    25                     26                     27
                    A"                     A"                     A"
 Frequencies --  1294.9625              1326.4979              1332.3426
 Red. masses --     2.5555                 1.3047                 1.6095
 Frc consts  --     2.5249                 1.3526                 1.6834
 IR Inten    --     0.1095                12.0923                 4.6674

                    28                     29                     30
                    A'                     A'                     A'
 Frequencies --  1341.4193              1362.0448              1435.9637
 Red. masses --     1.2710                 1.7460                 1.1493
 Frc consts  --     1.3475                 1.9085                 1.3963
 IR Inten    --     3.5649                 2.7627                12.2525

                    31                     32                     33
                    A'                     A"                     A'
 Frequencies --  2048.7445              2240.4348              2249.7490
 Red. masses --    13.5229                 2.3064                 2.2914
 Frc consts  --    33.4423                 6.8210                 6.8330
 IR Inten    --   489.0852                 7.1317                19.0189

                    34                     35                     36
                    A'                     A"                     A'
 Frequencies --  2995.8945              3089.2729              3098.7522
 Red. masses --     1.0712                 1.0848                 1.0849
 Frc consts  --     5.6649                 6.0995                 6.1378
 IR Inten    --     3.7701                14.0066                19.4723

                    37                     38                     39
                    A'                     A"                     A'
 Frequencies --  3148.0098              3232.9565              3235.6357
 Red. masses --     1.0903                 1.0901                 1.0928
 Frc consts  --     6.3663                 6.7131                 6.7409
 IR Inten    --     8.0846                12.9257                 4.7234

 - Thermochemistry -
 -------------------
 Temperature   298.150 Kelvin.  Pressure   1.00000 Atm.
 Atom     1 has atomic number  6 and mass  12.00000

 Molecular mass:    98.08130 amu.
 Principal axes and moments of inertia in atomic units:
                           1         2         3
     Eigenvalues --   490.59782 666.88358 706.48021
           X            0.81580   0.00000  -0.57833
           Y            0.57833   0.00000   0.81580
           Z            0.00000   1.00000   0.00000
 This molecule is an asymmetric top.
 Rotational symmetry number  1.
 Warning -- assumption of classical behavior for rotation
           may cause significant error
 Rotational temperatures (Kelvin)      0.17655     0.12988     0.12260
 Rotational constants (GHZ):           3.67866     2.70623     2.55455
    1 imaginary frequencies ignored.
 Zero-point vibrational energy     301979.7 (Joules/Mol)
                                   72.17488 (Kcal/Mol)
 Warning -- explicit consideration of   6 degrees of freedom as
           vibrations may cause significant error
 Vibrational temperatures:    124.32   192.73   337.63   431.33   518.11
          (Kelvin)            714.72   900.06   921.05   959.21  1031.17
                             1102.57  1148.47  1159.90  1293.94  1305.82
                             1345.33  1404.02  1443.20  1520.13  1528.95
                             1547.40  1788.28  1819.06  1863.16  1908.53
                             1916.94  1930.00  1959.68  2066.03  2947.68
                             3223.48  3236.88  4310.42  4444.77  4458.41
                             4529.28  4651.50  4655.35

 Zero-point correction=                           0.115018 (Hartree/Particle)
 Thermal correction to Energy=                    0.121952
 Thermal correction to Enthalpy=                  0.122896
 Thermal correction to Gibbs Free Energy=         0.084237
 Sum of electronic and zero-point Energies=           -304.476877
 Sum of electronic and thermal Energies=              -304.469943
 Sum of electronic and thermal Enthalpies=            -304.468999
 Sum of electronic and thermal Free Energies=         -304.507658

                     E (Thermal)             CV                S
                      KCal/Mol        Cal/Mol-Kelvin    Cal/Mol-Kelvin
 Total                   76.526             26.017             81.364
 Electronic               0.000              0.000              0.000
 Translational            0.889              2.981             39.660
 Rotational               0.889              2.981             26.938
 Vibrational             74.748             20.056             14.765
 Vibration     1          0.601              1.959              3.740
 Vibration     2          0.613              1.919              2.889
 Vibration     3          0.654              1.788              1.843
 Vibration     4          0.692              1.674              1.418
 Vibration     5          0.735              1.554              1.122
 Vibration     6          0.852              1.257              0.666

 Optimization completed.
    -- Stationary point found.
 Normal termination of Gaussian 09 at Fri Nov  8 16:19:16 2019.
